                  Welcome to Q-Chem
     A Quantum Leap Into The Future Of Chemistry


 Q-Chem 5.4, Q-Chem, Inc., Pleasanton, CA (2021)

 E. Epifanovsky,  A. T. B. Gilbert,  Xintian Feng,  Joonho Lee,  Yuezhi Mao,  
 N. Mardirossian,  P. Pokhilko,  A. White,  M. Wormit,  M. P. Coons,  
 A. L. Dempwolff,  Zhengting Gan,  D. Hait,  P. R. Horn,  L. D. Jacobson,  
 I. Kaliman,  J. Kussmann,  A. W. Lange,  Ka Un Lao,  D. S. Levine,  Jie Liu,  
 S. C. McKenzie,  A. F. Morrison,  K. Nanda,  F. Plasser,  D. R. Rehn,  
 M. L. Vidal,  Zhi-Qiang You,  Ying Zhu,  B. Alam,  B. Albrecht,  
 A. Aldossary,  E. Alguire,  J. H. Andersen,  D. Barton,  K. Begam,  A. Behn,  
 Y. A. Bernard,  E. J. Berquist,  H. Burton,  A. Carreras,  K. Carter-Fenk,  
 Romit Chakraborty,  A. D. Chien,  K. D. Closser,  V. Cofer-Shabica,  
 S. Dasgupta,  Jia Deng,  M. de Wergifosse,  M. Diedenhofen,  Hainam Do,  
 S. Ehlert,  Po-Tung Fang,  S. Fatehi,  Qingguo Feng,  T. Friedhoff,  
 J. Gayvert,  Qinghui Ge,  G. Gidofalvi,  M. Goldey,  J. Gomes,  
 C. Gonzalez-Espinoza,  S. Gulania,  A. Gunina,  M. W. D. Hanson-Heine,  
 P. H. P. Harbach,  A. W. Hauser,  M. F. Herbst,  M. Hernandez Vera,  
 M. Hodecker,  Z. C. Holden,  S. Houck,  Xunkun Huang,  Kerwin Hui,  
 B. C. Huynh,  M. Ivanov,  Hyunjun Ji,  Hanjie Jiang,  B. Kaduk,  S. Kaehler,  
 K. Khistyaev,  Jaehoon Kim,  P. Klunzinger,  Z. Koczor-Benda,  
 Joong Hoon Koh,  D. Kosenkov,  L. Koulias,  T. Kowalczyk,  C. M. Krauter,  
 K. Kue,  A. Kunitsa,  T. Kus,  A. Landau,  K. V. Lawler,  D. Lefrancois,  
 S. Lehtola,  Rain Li,  Yi-Pei Li,  Jiashu Liang,  M. Liebenthal,  
 Hung-Hsuan Lin,  You-Sheng Lin,  Fenglai Liu,  Kuan-Yu Liu,  
 M. Loipersberger,  A. Luenser,  A. Manjanath,  P. Manohar,  E. Mansoor,  
 S. F. Manzer,  Shan-Ping Mao,  A. V. Marenich,  T. Markovich,  S. Mason,  
 S. A. Maurer,  P. F. McLaughlin,  M. F. S. J. Menger,  J.-M. Mewes,  
 S. A. Mewes,  P. Morgante,  J. W. Mullinax,  K. J. Oosterbaan,  G. Paran,  
 Alexander C. Paul,  Suranjan K. Paul,  F. Pavosevic,  Zheng Pei,  S. Prager,  
 E. I. Proynov,  E. Ramos,  B. Rana,  A. E. Rask,  A. Rettig,  R. M. Richard,  
 F. Rob,  E. Rossomme,  T. Scheele,  M. Scheurer,  M. Schneider,  
 N. Sergueev,  S. M. Sharada,  W. Skomorowski,  D. W. Small,  C. J. Stein,  
 Yu-Chuan Su,  E. J. Sundstrom,  Zhen Tao,  J. Thirman,  T. Tsuchimochi,  
 N. M. Tubman,  S. P. Veccham,  O. Vydrov,  J. Wenzel,  J. Witte,  A. Yamada,  
 Kun Yao,  S. Yeganeh,  S. R. Yost,  A. Zech,  Igor Ying Zhang,  Xing Zhang,  
 Yu Zhang,  D. Zuev,  A. Aspuru-Guzik,  A. T. Bell,  N. A. Besley,  
 K. B. Bravaya,  B. R. Brooks,  D. Casanova,  Jeng-Da Chai,  S. Coriani,  
 C. J. Cramer,  A. E. DePrince, III,  R. A. DiStasio Jr.,  A. Dreuw,  
 B. D. Dunietz,  T. R. Furlani,  W. A. Goddard III,  S. Grimme,  
 S. Hammes-Schiffer,  T. Head-Gordon,  W. J. Hehre,  Chao-Ping Hsu,  
 T.-C. Jagau,  Yousung Jung,  A. Klamt,  Jing Kong,  D. S. Lambrecht,  
 WanZhen Liang,  N. J. Mayhall,  C. W. McCurdy,  J. B. Neaton,  T. Neudecker,  
 C. Ochsenfeld,  J. A. Parkhill,  R. Peverati,  V. A. Rassolov,  Yihan Shao,  
 L. V. Slipchenko,  R. P. Steele,  J. E. Subotnik,  A. J. W. Thom,  
 A. Tkatchenko,  D. G. Truhlar,  T. Van Voorhis,  T. A. Wesolowski,  
 K. B. Whaley,  H. L. Woodcock III,  P. M. Zimmerman,  S. Faraji,  
 P. M. W. Gill,  M. Head-Gordon,  J. M. Herbert,  A. I. Krylov

 Additional authors since Version 5.4.0: 
 Chandrima Chakravarty,  L. Cunha,  R. Kang,  Yongbin Kim,  S. Kotaru,  
 Shaozhi Li,  Xiangyuan Li,  F. Matz,  A. Molle,  V. Parravicini,  
 Haisheng Ren,  Hengyuan Shen,  Yingli Su,  Hung-Yi Tsai,  C. Utku,  
 Fang Wang,  Jeff Yang,  F. Zeller

 Contributors to earlier versions of Q-Chem not listed above: 
 R. D. Adamson,  B. Austin,  R. Baer,  J. Baker,  G. J. O. Beran,  
 K. Brandhorst,  S. T. Brown,  E. F. C. Byrd,  Arup K. Chakraborty,  
 G. K. L. Chan,  Chun-Min Chang,  Yunqing Chen,  C.-L. Cheng,  
 Siu Hung Chien,  D. M. Chipman,  D. L. Crittenden,  H. Dachsel,  
 R. J. Doerksen,  A. D. Dutoi,  R. G. Edgar,  J. Fosso-Tande,  
 L. Fusti-Molnar,  D. Ghosh,  A. Ghysels,  A. Golubeva-Zadorozhnaya,  
 J. Gonthier,  M. S. Gordon,  S. R. Gwaltney,  G. Hawkins,  J. E. Herr,  
 A. Heyden,  S. Hirata,  E. G. Hohenstein,  G. Kedziora,  F. J. Keil,  
 C. Kelley,  Jihan Kim,  R. A. King,  R. Z. Khaliullin,  P. P. Korambath,  
 W. Kurlancheek,  A. Laurent,  A. M. Lee,  M. S. Lee,  S. V. Levchenko,  
 Ching Yeh Lin,  D. Liotard,  E. Livshits,  R. C. Lochan,  I. Lotan,  
 L. A. Martinez-Martinez,  P. E. Maslen,  N. Nair,  D. P. O'Neill,  
 D. Neuhauser,  E. Neuscamman,  C. M. Oana,  R. Olivares-Amaya,  R. Olson,  
 T. M. Perrine,  B. Peters,  P. A. Pieniazek,  A. Prociuk,  Y. M. Rhee,  
 J. Ritchie,  M. A. Rohrdanz,  E. Rosta,  N. J. Russ,  H. F. Schaefer III,  
 M. W. Schmidt,  N. E. Schultz,  S. Sharma,  N. Shenvi,  C. D. Sherrill,  
 A. C. Simmonett,  A. Sodt,  T. Stein,  D. Stuck,  K. S. Thanthiriwatte,  
 V. Vanovschi,  L. Vogt,  Tao Wang,  A. Warshel,  M. A. Watson,  
 C. F. Williams,  Q. Wu,  X. Xu,  Jun Yang,  W. Zhang,  Yan Zhao

   Please cite Q-Chem as follows:
  "Software for the frontiers of quantum chemistry:
   An overview of developments in the Q-Chem 5 package"
   J. Chem. Phys. 155, 084801 (2021)
   https://doi.org/10.1063/5.0055522 (open access)

 Q-Chem 5.4.2 for Intel X86 EM64T Linux

 Parts of Q-Chem use Armadillo 9.900.5 (Nocturnal Misbehaviour).
 http://arma.sourceforge.net/

 Q-Chem begins on Tue Mar 22 16:34:38 2022  

 Host: 
0

     Scratch files written to 1_WF//
 Dec1321 |scratch|qcdevops|jenkins|workspace|build_RNUM 8603   
 Processing $rem in /nobackup/chmhch/opt/qchem/5.4.0/config/preferences:
 Processing $rem in /home/home02/chmhch/.qchemrc:

 Checking the input file for inconsistencies... 	...done.

--------------------------------------------------------------
User input:
--------------------------------------------------------------
$molecule
    0 3
C -0.3315884622912717E-01 -0.3582465740572065E-01 -0.6868640359120902E-01
H 0.1806265893376148E+01 0.1327029923497125E+01 0.1588138269239732E+01
H -0.1736933870446310E+01 -0.9202827159878718E+00 0.1267407828304273E+01
H -0.1344803104371244E+01 0.1274705187845912E+01 -0.1204424727904407E+01
H 0.1484494846888461E+01 -0.1255269871070960E+01 -0.1202765340454664E+01 
$end

$rem
    !EXCHANGE            HF
    !CORRELATION         CI
    EXCHANGE            BHHLYP !50% HF +  50% Becke88 exchange
    BASIS               6-31+G*
    UNRESTRICTED        True
    MAX_SCF_CYCLES      500
    SYM_IGNORE          True
    SCF_Algorithm       DIIS
    SCF_GUESS           SAD 

    SPIN_FLIP           True
    SET_Iter            100

    CALC_NAC            True 
    CIS_DER_NUMSTATE    7  

    CIS_N_ROOTS         7 
$end

$derivative_coupling
   comment https://manual.q-chem.com/5.0/sec-MECPs.html
    1 2 3 4 5 6 7
$end

--------------------------------------------------------------
 ----------------------------------------------------------------
             Standard Nuclear Orientation (Angstroms)
    I     Atom           X                Y                Z
 ----------------------------------------------------------------
    1      C      -0.0331588462    -0.0358246574    -0.0686864036
    2      H       1.8062658934     1.3270299235     1.5881382692
    3      H      -1.7369338704    -0.9202827160     1.2674078283
    4      H      -1.3448031044     1.2747051878    -1.2044247279
    5      H       1.4844948469    -1.2552698711    -1.2027653405
 ----------------------------------------------------------------
 Nuclear Repulsion Energy =           6.16890880 hartrees
 There are        6 alpha and        4 beta electrons
 Requested basis set is 6-31+G(d)
 There are 13 shells and 27 basis functions

 Total QAlloc Memory Limit   8000 MB
 Mega-Array Size       188 MB
 MEM_STATIC part       192 MB

                       Distance Matrix (Angstroms)
             C (  1)   H (  2)   H (  3)   H (  4)
   H (  2)  2.825938
   H (  3)  2.338859  4.208034
   H (  4)  2.174351  4.210746  3.328918
   H (  5)  2.253099  3.815882  4.073276  3.795485
 
 A cutoff of  1.0D-11 yielded     91 shell pairs
 There are       411 function pairs
 Smallest overlap matrix eigenvalue = 4.61E-02

 Scale SEOQF with 1.000000e-01/1.000000e-01/1.000000e-01

 Standard Electronic Orientation quadrupole field applied
 Guess from superposition of atomic densities
 Warning:  Energy on first SCF cycle will be non-variational
 SAD guess density has 10.000000 electrons

 -----------------------------------------------------------------------
  General SCF calculation program by
  Eric Jon Sundstrom, Paul Horn, Yuezhi Mao, Dmitri Zuev, Alec White,
  David Stuck, Shaama M.S., Shane Yost, Joonho Lee, David Small,
  Daniel Levine, Susi Lehtola, Hugh Burton, Evgeny Epifanovsky,
  Bang C. Huynh
 -----------------------------------------------------------------------
 Exchange:     0.5000 Hartree-Fock + 0.5000 B88
 Correlation:  1.0000 LYP
 Using SG-1 standard quadrature grid
 A unrestricted SCF calculation will be
 performed using DIIS
 SCF converges when DIIS error is below 1.0e-08
 ---------------------------------------
  Cycle       Energy         DIIS error
 ---------------------------------------
    1     -39.3030135269      6.48e-03  
    2     -39.6719520779      1.20e-02  
    3     -39.7820985794      3.46e-03  
    4     -39.7959335040      3.64e-03  
    5     -39.8162230640      2.52e-03  
    6     -39.8255308290      2.24e-03  
    7     -39.8392343556      1.96e-03  
    8     -39.8553009872      1.62e-03  
    9     -39.8654819877      6.39e-04  
   10     -39.8648105780      8.14e-04  
   11     -39.8666086184      1.66e-04  
   12     -39.8666577683      9.06e-05  
   13     -39.8666874005      2.72e-05  
   14     -39.8666886488      1.63e-05  
   15     -39.8666895916      5.44e-06  
   16     -39.8666897856      3.90e-06  
   17     -39.8666899375      3.05e-06  
   18     -39.8666901019      2.87e-06  
   19     -39.8666902722      2.26e-06  
   20     -39.8666903012      4.41e-07  
   21     -39.8666903023      3.18e-07  
   22     -39.8666903032      3.11e-07  
   23     -39.8666903057      2.32e-07  
   24     -39.8666903097      7.40e-08  
   25     -39.8666903099      1.13e-08  
   26     -39.8666903099      1.93e-09  Convergence criterion met
 ---------------------------------------
 SCF time:   CPU 1.53s  wall 5.00s 
<S^2> =          3.324441961
 SCF   energy in the final basis set =      -39.8666903099
 Total energy in the final basis set =      -39.8666903099
 
 MAX_CIS_SUBSPACE fits in available memory
 Spin-flip DFT calculation will be performed
 CIS energy converged when residual is below 10e- 6
 ---------------------------------------------------
 Iter    Rts Conv    Rts Left    Ttl Dev     Max Dev
 ---------------------------------------------------
   1         0           7      0.027144    0.004516
   2         0           7      0.017405    0.004378
   3         0           7      0.002600    0.000533
   4         0           7      0.000243    0.000057
   5         0           7      0.000020    0.000005
   6         7           0      0.000002    0.000001    Roots Converged
 ---------------------------------------------------
 
 ---------------------------------------------------
            SF-DFT Excitation Energies              
 (The first "excited" state might be the ground state) 
 ---------------------------------------------------

 Excited state   1: excitation energy (eV) =    1.4274
 Total energy for state  1:                   -39.81423289 au
    <S**2>     :  3.2622
    D(    4) --> V(    1) amplitude =  0.3719
    D(    4) --> V(    2) amplitude =  0.2942
    S(    1) --> S(    1) amplitude = -0.2042 alpha
    S(    1) --> S(    2) amplitude = -0.2672 alpha
    S(    1) --> V(    1) amplitude = -0.3281 alpha
    S(    2) --> S(    1) amplitude =  0.4822 alpha
    S(    2) --> S(    2) amplitude =  0.4258 alpha

 Excited state   2: excitation energy (eV) =    1.5918
 Total energy for state  2:                   -39.80819208 au
    <S**2>     :  1.6861
    D(    4) --> S(    1) amplitude = -0.3082
    D(    4) --> S(    2) amplitude = -0.4205
    D(    4) --> V(    2) amplitude =  0.2604
    D(    4) --> V(    3) amplitude =  0.1807
    S(    1) --> S(    1) amplitude =  0.1620 alpha
    S(    1) --> S(    2) amplitude =  0.2517 alpha
    S(    1) --> V(    1) amplitude =  0.3984 alpha
    S(    1) --> V(    2) amplitude =  0.1708 alpha
    S(    2) --> V(    1) amplitude = -0.4469 alpha
    S(    2) --> V(    2) amplitude = -0.1746 alpha

 Excited state   3: excitation energy (eV) =    1.7660
 Total energy for state  3:                   -39.80179172 au
    <S**2>     :  2.4831
    D(    3) --> S(    1) amplitude =  0.5003
    D(    3) --> S(    2) amplitude = -0.4421
    D(    3) --> V(    3) amplitude = -0.6093
    D(    4) --> S(    1) amplitude =  0.1609
    D(    4) --> V(    3) amplitude = -0.1630
    S(    2) --> S(    1) amplitude =  0.1517 alpha

 Excited state   4: excitation energy (eV) =    1.8230
 Total energy for state  4:                   -39.79969714 au
    <S**2>     :  2.3559
    D(    4) --> S(    2) amplitude = -0.2451
    D(    4) --> V(    1) amplitude =  0.1823
    S(    1) --> S(    1) amplitude = -0.1697 alpha
    S(    1) --> S(    2) amplitude = -0.3345 alpha
    S(    1) --> V(    1) amplitude =  0.2687 alpha
    S(    1) --> V(    2) amplitude = -0.3815 alpha
    S(    2) --> S(    2) amplitude = -0.2477 alpha
    S(    2) --> V(    1) amplitude =  0.2211 alpha
    S(    2) --> V(    2) amplitude = -0.5491 alpha

 Excited state   5: excitation energy (eV) =    2.6906
 Total energy for state  5:                   -39.76781200 au
    <S**2>     :  2.4530
    D(    2) --> S(    1) amplitude = -0.2979
    D(    4) --> V(    2) amplitude = -0.1721
    S(    2) --> S(    1) amplitude =  0.7558 alpha
    S(    2) --> S(    2) amplitude = -0.2901 alpha
    S(    2) --> V(    3) amplitude =  0.3148 alpha

 Excited state   6: excitation energy (eV) =    4.0307
 Total energy for state  6:                   -39.71856383 au
    <S**2>     :  2.4020
    D(    4) --> S(    1) amplitude =  0.2239
    S(    1) --> S(    1) amplitude =  0.9009 alpha
    S(    1) --> S(    2) amplitude = -0.1812 alpha
    S(    1) --> V(    3) amplitude =  0.1900 alpha

 Excited state   7: excitation energy (eV) =    4.3738
 Total energy for state  7:                   -39.70595683 au
    <S**2>     :  2.4510
    D(    4) --> S(    1) amplitude =  0.8755
    D(    4) --> S(    2) amplitude = -0.2020
    D(    4) --> V(    3) amplitude =  0.2120
    S(    1) --> S(    1) amplitude = -0.2312 alpha
 
 ---------------------------------------------------
 Calculating Relaxed Density
 zisleg_dc time:  CPU 0.36 s  wall 0.72 s
 ---------------------------------------------------
 Iter    Rts Conv    Rts Left    Ttl Dev     Max Dev
 ---------------------------------------------------
   1         0          28      0.116331    0.009010
   2         0          28      0.054859    0.004591
   3         0          28      0.053438    0.005075
   4         0          28      0.046015    0.004346
   5         0          28      0.023170    0.002003
   6         0          28      0.010782    0.000993
   7        11          17      0.000762    0.000098
   8        28           0      0.000000    0.000000    Roots Converged
 ---------------------------------------------------
  SETman timing summary (seconds)
  CPU time                 3.99s
  System time              0.00s
  Wall time                8.21s
 
 --------------------------------------------------------------
 
                    Orbital Energies (a.u.)
 --------------------------------------------------------------
 
 Alpha MOs
 -- Occupied --
-10.7397  -0.5914  -0.3957  -0.3853  -0.3739  -0.3478
 -- Virtual --
 -0.0722  -0.0160  -0.0030   0.1059   0.1102   0.1200   0.1311   0.7147
  0.7298   0.7367   0.8342   0.8681   0.9202   0.9400   0.9857   1.7894
  1.7912   1.7972   1.8428   1.8532   4.0334
 
 Beta MOs
 -- Occupied --
-10.7622  -0.6944  -0.3494  -0.3490
 -- Virtual --
 -0.1200  -0.0626  -0.0291  -0.0234  -0.0123   0.1033   0.1124   0.1336
  0.1614   0.6738   0.6778   0.7055   0.8200   1.0171   1.0377   1.0552
  1.1047   1.7158   1.7223   1.7429   1.7468   1.7566   3.9965
 --------------------------------------------------------------
 
          Ground-State Mulliken Net Atomic Charges

     Atom                 Charge (a.u.)    Spin (a.u.)
  --------------------------------------------------------
      1 C                    -0.105680      -1.537495
      2 H                     0.032744       0.965852
      3 H                     0.027167       0.885760
      4 H                     0.020560       0.822818
      5 H                     0.025208       0.863064
  --------------------------------------------------------
  Sum of atomic charges =    -0.000000
  Sum of spin   charges =     2.000000

 -----------------------------------------------------------------
                    Cartesian Multipole Moments
 -----------------------------------------------------------------
    Charge (ESU x 10^10)
                 0.0000
    Dipole Moment (Debye)
         X       0.1820      Y       0.0600      Z       0.1732
       Tot       0.2583
    Quadrupole Moments (Debye-Ang)
        XX     -11.6552     XY       0.9093     YY     -11.3742
        XZ       0.6497     YZ       0.9499     ZZ     -11.7189
    Octopole Moments (Debye-Ang^2)
       XXX       0.7873    XXY      -0.0958    XYY       0.3753
       YYY      -0.6729    XXZ       0.6409    XYZ       0.7755
       YYZ       0.1261    XZZ       0.4279    YZZ      -0.1352
       ZZZ       0.5631
    Hexadecapole Moments (Debye-Ang^3)
      XXXX     -94.8758   XXXY       0.4987   XXYY     -24.7511
      XYYY      -0.2474   YYYY     -60.4157   XXXZ      -0.7642
      XXYZ      -0.1677   XYYZ       0.1096   YYYZ      -1.9774
      XXZZ     -25.9997   XYZZ       0.5195   YYZZ     -20.9859
      XZZZ      -0.5462   YZZZ      -1.8371   ZZZZ     -70.6820
 -----------------------------------------------------------------


 ---------------------------------------------------
             SF-CIS Derivative Couplings
 ---------------------------------------------------
              between states 1 and 2
NCharge is 0
 get_w_dc time:  CPU 0.11 s  wall 0.21 s
 AOints 129 time:  CPU 0.27 s  wall 0.73 s
 DFT time  CPU 0.16 s  wall 0.43 s
 Ei = -39.814233
 Ej = -39.808192
 Ej-Ei = 0.006041
---------------------------------------------------
SF-CIS derivative coupling without ETF
  Atom         X              Y              Z     
---------------------------------------------------
   1       2.618782      -0.571830      -1.713823
   2      -0.049626       0.004606       0.162583
   3      -1.331746      -0.606121       1.285741
   4      -0.010971       0.083981      -0.358146
   5      -1.227405       1.089329       0.624237
---------------------------------------------------
---------------------------------------------------
CIS Force Matrix Element
  Atom         X              Y              Z     
---------------------------------------------------
   1       0.015820      -0.003458      -0.010348
   2      -0.000299       0.000028       0.000982
   3      -0.008054      -0.003673       0.007754
   4      -0.000060       0.000511      -0.002164
   5      -0.007406       0.006592       0.003776
---------------------------------------------------
---------------------------------------------------
SF-CIS derivative coupling with ETF
  Atom         X              Y              Z     
---------------------------------------------------
   1       2.618898      -0.572430      -1.713024
   2      -0.049560       0.004611       0.162534
   3      -1.333295      -0.608044       1.283640
   4      -0.009974       0.084641      -0.358274
   5      -1.226068       1.091222       0.625124
---------------------------------------------------
              between states 1 and 3
NCharge is 0
 get_w_dc time:  CPU 0.11 s  wall 0.22 s
 AOints 129 time:  CPU 0.26 s  wall 0.52 s
 DFT time  CPU 0.15 s  wall 0.31 s
 Ei = -39.814233
 Ej = -39.801792
 Ej-Ei = 0.012441
---------------------------------------------------
SF-CIS derivative coupling without ETF
  Atom         X              Y              Z     
---------------------------------------------------
   1      -0.225810      -0.102184      -0.046078
   2       0.140238       0.132858       0.120628
   3      -0.051790      -0.004797       0.041273
   4      -0.032224       0.080269      -0.010389
   5       0.170159      -0.105761      -0.105015
---------------------------------------------------
---------------------------------------------------
CIS Force Matrix Element
  Atom         X              Y              Z     
---------------------------------------------------
   1      -0.002802      -0.001263      -0.000564
   2       0.001741       0.001651       0.001499
   3      -0.000649      -0.000063       0.000506
   4      -0.000398       0.001000      -0.000127
   5       0.002108      -0.001324      -0.001314
---------------------------------------------------
---------------------------------------------------
SF-CIS derivative coupling with ETF
  Atom         X              Y              Z     
---------------------------------------------------
   1      -0.225219      -0.101521      -0.045295
   2       0.139916       0.132696       0.120491
   3      -0.052134      -0.005100       0.040653
   4      -0.031973       0.080378      -0.010222
   5       0.169410      -0.106453      -0.105627
---------------------------------------------------
              between states 1 and 4
NCharge is 0
 get_w_dc time:  CPU 0.11 s  wall 0.22 s
 AOints 129 time:  CPU 0.26 s  wall 0.54 s
 DFT time  CPU 0.15 s  wall 0.31 s
 Ei = -39.814233
 Ej = -39.799697
 Ej-Ei = 0.014536
---------------------------------------------------
SF-CIS derivative coupling without ETF
  Atom         X              Y              Z     
---------------------------------------------------
   1       0.298819      -0.376445      -0.289897
   2       0.046759       0.073312       0.041114
   3       0.082180      -0.065488      -0.023206
   4      -0.092516       0.185931      -0.051719
   5      -0.336099       0.183055       0.323236
---------------------------------------------------
---------------------------------------------------
CIS Force Matrix Element
  Atom         X              Y              Z     
---------------------------------------------------
   1       0.004368      -0.005433      -0.004206
   2       0.000680       0.001065       0.000598
   3       0.001207      -0.000959      -0.000326
   4      -0.001386       0.002651      -0.000787
   5      -0.004869       0.002676       0.004721
---------------------------------------------------
---------------------------------------------------
SF-CIS derivative coupling with ETF
  Atom         X              Y              Z     
---------------------------------------------------
   1       0.300476      -0.373776      -0.289346
   2       0.046803       0.073238       0.041136
   3       0.083064      -0.065959      -0.022431
   4      -0.095356       0.182405      -0.054113
   5      -0.334988       0.184092       0.324754
---------------------------------------------------
              between states 1 and 5
NCharge is 0
 get_w_dc time:  CPU 0.11 s  wall 0.22 s
 AOints 129 time:  CPU 0.26 s  wall 0.53 s
 DFT time  CPU 0.16 s  wall 0.31 s
 Ei = -39.814233
 Ej = -39.767812
 Ej-Ei = 0.046421
---------------------------------------------------
SF-CIS derivative coupling without ETF
  Atom         X              Y              Z     
---------------------------------------------------
   1      -0.053117      -0.014624       0.041817
   2       0.039011       0.027615       0.031159
   3      -0.137822      -0.036498       0.147508
   4      -0.128323       0.166501      -0.087336
   5       0.277664      -0.146564      -0.140087
---------------------------------------------------
---------------------------------------------------
CIS Force Matrix Element
  Atom         X              Y              Z     
---------------------------------------------------
   1      -0.001778       0.000092       0.002822
   2       0.001810       0.001286       0.001443
   3      -0.006472      -0.001849       0.006510
   4      -0.005938       0.007493      -0.004082
   5       0.012377      -0.007022      -0.006694
---------------------------------------------------
---------------------------------------------------
SF-CIS derivative coupling with ETF
  Atom         X              Y              Z     
---------------------------------------------------
   1      -0.038292       0.001973       0.060796
   2       0.038992       0.027699       0.031093
   3      -0.139425      -0.039822       0.140236
   4      -0.127911       0.161408      -0.087932
   5       0.266636      -0.151258      -0.144194
---------------------------------------------------
              between states 1 and 6
NCharge is 0
 get_w_dc time:  CPU 0.11 s  wall 0.22 s
 AOints 129 time:  CPU 0.26 s  wall 0.53 s
 DFT time  CPU 0.16 s  wall 0.31 s
 Ei = -39.814233
 Ej = -39.718564
 Ej-Ei = 0.095669
---------------------------------------------------
SF-CIS derivative coupling without ETF
  Atom         X              Y              Z     
---------------------------------------------------
   1       0.150752      -0.018052       0.100938
   2      -0.023063      -0.023824      -0.009349
   3       0.035926       0.028806      -0.054194
   4      -0.080245       0.008556      -0.076728
   5      -0.096196       0.048340       0.019401
---------------------------------------------------
---------------------------------------------------
CIS Force Matrix Element
  Atom         X              Y              Z     
---------------------------------------------------
   1       0.014542      -0.005809       0.010290
   2      -0.002224      -0.002261      -0.000906
   3       0.002812       0.003159      -0.003935
   4      -0.007127       0.000167      -0.007028
   5      -0.008002       0.004744       0.001579
---------------------------------------------------
---------------------------------------------------
SF-CIS derivative coupling with ETF
  Atom         X              Y              Z     
---------------------------------------------------
   1       0.152000      -0.060715       0.107555
   2      -0.023251      -0.023636      -0.009467
   3       0.029388       0.033017      -0.041136
   4      -0.074493       0.001743      -0.073460
   5      -0.083644       0.049591       0.016508
---------------------------------------------------
              between states 1 and 7
NCharge is 0
 get_w_dc time:  CPU 0.11 s  wall 0.22 s
 AOints 129 time:  CPU 0.26 s  wall 0.53 s
 DFT time  CPU 0.16 s  wall 0.31 s
 Ei = -39.814233
 Ej = -39.705957
 Ej-Ei = 0.108276
---------------------------------------------------
SF-CIS derivative coupling without ETF
  Atom         X              Y              Z     
---------------------------------------------------
   1      -0.042191      -0.002741       0.043987
   2       0.011392      -0.000127      -0.019598
   3      -0.017249      -0.017250      -0.020907
   4      -0.017656       0.014785       0.006827
   5      -0.008838       0.023328       0.043444
---------------------------------------------------
---------------------------------------------------
CIS Force Matrix Element
  Atom         X              Y              Z     
---------------------------------------------------
   1       0.000308      -0.001748       0.000927
   2       0.001175      -0.000014      -0.002124
   3      -0.001033      -0.001865      -0.004036
   4      -0.001899       0.001528       0.000981
   5       0.001448       0.002099       0.004252
---------------------------------------------------
---------------------------------------------------
SF-CIS derivative coupling with ETF
  Atom         X              Y              Z     
---------------------------------------------------
   1       0.002847      -0.016147       0.008562
   2       0.010853      -0.000126      -0.019614
   3      -0.009539      -0.017223      -0.037278
   4      -0.017537       0.014108       0.009062
   5       0.013376       0.019388       0.039267
---------------------------------------------------
              between states 2 and 3
NCharge is 0
 get_w_dc time:  CPU 0.11 s  wall 0.22 s
 AOints 129 time:  CPU 0.26 s  wall 0.53 s
 DFT time  CPU 0.15 s  wall 0.30 s
 Ei = -39.808192
 Ej = -39.801792
 Ej-Ei = 0.006400
---------------------------------------------------
SF-CIS derivative coupling without ETF
  Atom         X              Y              Z     
---------------------------------------------------
   1      -0.455126       0.125018       0.234042
   2       0.070405       0.062304       0.060554
   3       0.079408       0.036871      -0.058286
   4       0.015383       0.008433      -0.007668
   5       0.289837      -0.232567      -0.228320
---------------------------------------------------
---------------------------------------------------
CIS Force Matrix Element
  Atom         X              Y              Z     
---------------------------------------------------
   1      -0.002908       0.000802       0.001493
   2       0.000449       0.000399       0.000389
   3       0.000510       0.000238      -0.000370
   4       0.000097       0.000053      -0.000048
   5       0.001852      -0.001491      -0.001464
---------------------------------------------------
---------------------------------------------------
SF-CIS derivative coupling with ETF
  Atom         X              Y              Z     
---------------------------------------------------
   1      -0.454317       0.125281       0.233318
   2       0.070135       0.062271       0.060731
   3       0.079707       0.037177      -0.057750
   4       0.015141       0.008231      -0.007556
   5       0.289333      -0.232960      -0.228742
---------------------------------------------------
              between states 2 and 4
NCharge is 0
 get_w_dc time:  CPU 0.11 s  wall 0.23 s
 AOints 129 time:  CPU 0.27 s  wall 0.54 s
 DFT time  CPU 0.15 s  wall 0.30 s
 Ei = -39.808192
 Ej = -39.799697
 Ej-Ei = 0.008495
---------------------------------------------------
SF-CIS derivative coupling without ETF
  Atom         X              Y              Z     
---------------------------------------------------
   1       0.840513      -0.798589      -0.398432
   2       0.046015       0.071101       0.038561
   3       0.002869      -0.016880      -0.021694
   4      -0.356811       0.366127      -0.138496
   5      -0.533302       0.378610       0.519862
---------------------------------------------------
---------------------------------------------------
CIS Force Matrix Element
  Atom         X              Y              Z     
---------------------------------------------------
   1       0.007146      -0.006785      -0.003373
   2       0.000391       0.000604       0.000328
   3       0.000019      -0.000141      -0.000188
   4      -0.003031       0.003101      -0.001191
   5      -0.004525       0.003220       0.004425
---------------------------------------------------
---------------------------------------------------
SF-CIS derivative coupling with ETF
  Atom         X              Y              Z     
---------------------------------------------------
   1       0.841249      -0.798670      -0.397033
   2       0.046032       0.071082       0.038573
   3       0.002186      -0.016545      -0.022152
   4      -0.356756       0.365076      -0.140258
   5      -0.532711       0.379056       0.520869
---------------------------------------------------
              between states 2 and 5
NCharge is 0
 get_w_dc time:  CPU 0.11 s  wall 0.22 s
 AOints 129 time:  CPU 0.26 s  wall 0.53 s
 DFT time  CPU 0.16 s  wall 0.31 s
 Ei = -39.808192
 Ej = -39.767812
 Ej-Ei = 0.040380
---------------------------------------------------
SF-CIS derivative coupling without ETF
  Atom         X              Y              Z     
---------------------------------------------------
   1      -0.023123       0.008430       0.115450
   2      -0.015108      -0.008250       0.033419
   3      -0.010342       0.015541       0.064688
   4      -0.053980       0.056740      -0.098523
   5       0.106498      -0.072505      -0.121813
---------------------------------------------------
---------------------------------------------------
CIS Force Matrix Element
  Atom         X              Y              Z     
---------------------------------------------------
   1      -0.000731       0.000579       0.004856
   2      -0.000614      -0.000334       0.001351
   3      -0.000318       0.000784       0.002863
   4      -0.002279       0.002107      -0.003991
   5       0.003943      -0.003135      -0.005079
---------------------------------------------------
---------------------------------------------------
SF-CIS derivative coupling with ETF
  Atom         X              Y              Z     
---------------------------------------------------
   1      -0.018103       0.014328       0.120247
   2      -0.015209      -0.008271       0.033457
   3      -0.007878       0.019406       0.070910
   4      -0.056445       0.052170      -0.098846
   5       0.097636      -0.077633      -0.125768
---------------------------------------------------
              between states 2 and 6
NCharge is 0
 get_w_dc time:  CPU 0.11 s  wall 0.22 s
 AOints 129 time:  CPU 0.26 s  wall 0.53 s
 DFT time  CPU 0.15 s  wall 0.31 s
 Ei = -39.808192
 Ej = -39.718564
 Ej-Ei = 0.089628
---------------------------------------------------
SF-CIS derivative coupling without ETF
  Atom         X              Y              Z     
---------------------------------------------------
   1      -0.118052      -0.033371       0.074427
   2       0.011574      -0.001474      -0.020152
   3       0.035314       0.012484      -0.030232
   4      -0.015953       0.045740      -0.018557
   5       0.056327      -0.011444       0.006510
---------------------------------------------------
---------------------------------------------------
CIS Force Matrix Element
  Atom         X              Y              Z     
---------------------------------------------------
   1      -0.008718      -0.003228       0.006492
   2       0.001043      -0.000124      -0.001806
   3       0.003249       0.000531      -0.003709
   4      -0.001456       0.003639      -0.001454
   5       0.005882      -0.000818       0.000477
---------------------------------------------------
---------------------------------------------------
SF-CIS derivative coupling with ETF
  Atom         X              Y              Z     
---------------------------------------------------
   1      -0.097264      -0.036021       0.072431
   2       0.011632      -0.001379      -0.020152
   3       0.036249       0.005923      -0.041379
   4      -0.016248       0.040600      -0.016220
   5       0.065632      -0.009123       0.005320
---------------------------------------------------
              between states 2 and 7
NCharge is 0
 get_w_dc time:  CPU 0.11 s  wall 0.22 s
 AOints 129 time:  CPU 0.27 s  wall 0.54 s
 DFT time  CPU 0.16 s  wall 0.31 s
 Ei = -39.808192
 Ej = -39.705957
 Ej-Ei = 0.102235
---------------------------------------------------
SF-CIS derivative coupling without ETF
  Atom         X              Y              Z     
---------------------------------------------------
   1       0.151057       0.102357       0.080813
   2      -0.025108      -0.026874      -0.013146
   3      -0.010768      -0.011773      -0.040471
   4      -0.021046      -0.057518      -0.031357
   5      -0.105306       0.022411       0.006060
---------------------------------------------------
---------------------------------------------------
CIS Force Matrix Element
  Atom         X              Y              Z     
---------------------------------------------------
   1       0.014822       0.006829       0.006450
   2      -0.002606      -0.002754      -0.001343
   3      -0.001202      -0.000635      -0.002600
   4      -0.002177      -0.005936      -0.003062
   5      -0.008836       0.002495       0.000555
---------------------------------------------------
---------------------------------------------------
SF-CIS derivative coupling with ETF
  Atom         X              Y              Z     
---------------------------------------------------
   1       0.144975       0.066801       0.063094
   2      -0.025488      -0.026935      -0.013133
   3      -0.011756      -0.006213      -0.025433
   4      -0.021298      -0.058061      -0.029953
   5      -0.086433       0.024407       0.005426
---------------------------------------------------
              between states 3 and 4
NCharge is 0
 get_w_dc time:  CPU 0.11 s  wall 0.22 s
 AOints 129 time:  CPU 0.26 s  wall 0.53 s
 DFT time  CPU 0.16 s  wall 0.31 s
 Ei = -39.801792
 Ej = -39.799697
 Ej-Ei = 0.002095
---------------------------------------------------
SF-CIS derivative coupling without ETF
  Atom         X              Y              Z     
---------------------------------------------------
   1       0.026006      -2.000587       0.314545
   2       0.464398       1.022861       0.480108
   3       0.454105      -0.123749      -0.444333
   4      -0.572700       1.350140      -0.475168
   5      -0.371230      -0.248982       0.125008
---------------------------------------------------
---------------------------------------------------
CIS Force Matrix Element
  Atom         X              Y              Z     
---------------------------------------------------
   1       0.000055      -0.004186       0.000661
   2       0.000973       0.002142       0.001006
   3       0.000951      -0.000259      -0.000931
   4      -0.001201       0.002824      -0.000997
   5      -0.000777      -0.000521       0.000262
---------------------------------------------------
---------------------------------------------------
SF-CIS derivative coupling with ETF
  Atom         X              Y              Z     
---------------------------------------------------
   1       0.026191      -1.998439       0.315381
   2       0.464477       1.022651       0.480110
   3       0.454085      -0.123730      -0.444318
   4      -0.573572       1.348450      -0.476139
   5      -0.371181      -0.248932       0.124967
---------------------------------------------------
              between states 3 and 5
NCharge is 0
 get_w_dc time:  CPU 0.11 s  wall 0.22 s
 AOints 129 time:  CPU 0.26 s  wall 0.53 s
 DFT time  CPU 0.16 s  wall 0.31 s
 Ei = -39.801792
 Ej = -39.767812
 Ej-Ei = 0.033980
---------------------------------------------------
SF-CIS derivative coupling without ETF
  Atom         X              Y              Z     
---------------------------------------------------
   1      -0.001193      -0.046230       0.034567
   2       0.090618       0.011694       0.061831
   3      -0.046741      -0.002610       0.027780
   4      -0.109997       0.049946      -0.094382
   5       0.065286      -0.011943      -0.031793
---------------------------------------------------
---------------------------------------------------
CIS Force Matrix Element
  Atom         X              Y              Z     
---------------------------------------------------
   1       0.000033      -0.001542       0.001271
   2       0.003086       0.000427       0.002096
   3      -0.001581      -0.000086       0.000935
   4      -0.003760       0.001583      -0.003240
   5       0.002222      -0.000382      -0.001063
---------------------------------------------------
---------------------------------------------------
SF-CIS derivative coupling with ETF
  Atom         X              Y              Z     
---------------------------------------------------
   1       0.000966      -0.045366       0.037403
   2       0.090818       0.012574       0.061687
   3      -0.046528      -0.002542       0.027531
   4      -0.110655       0.046583      -0.095344
   5       0.065398      -0.011249      -0.031276
---------------------------------------------------
              between states 3 and 6
NCharge is 0
 get_w_dc time:  CPU 0.11 s  wall 0.22 s
 AOints 129 time:  CPU 0.27 s  wall 0.54 s
 DFT time  CPU 0.15 s  wall 0.30 s
 Ei = -39.801792
 Ej = -39.718564
 Ej-Ei = 0.083228
---------------------------------------------------
SF-CIS derivative coupling without ETF
  Atom         X              Y              Z     
---------------------------------------------------
   1       0.020300      -0.060539       0.022018
   2      -0.004622       0.003240      -0.002234
   3       0.014729       0.009064      -0.007459
   4      -0.030163       0.049553      -0.025782
   5      -0.005465       0.008510       0.005609
---------------------------------------------------
---------------------------------------------------
CIS Force Matrix Element
  Atom         X              Y              Z     
---------------------------------------------------
   1       0.002158      -0.005507       0.002470
   2      -0.000430       0.000412      -0.000236
   3       0.001108       0.000744      -0.000548
   4      -0.002374       0.003701      -0.002103
   5      -0.000461       0.000649       0.000416
---------------------------------------------------
---------------------------------------------------
SF-CIS derivative coupling with ETF
  Atom         X              Y              Z     
---------------------------------------------------
   1       0.025923      -0.066173       0.029681
   2      -0.005167       0.004954      -0.002832
   3       0.013315       0.008944      -0.006579
   4      -0.028529       0.044473      -0.025270
   5      -0.005543       0.007802       0.005000
---------------------------------------------------
              between states 3 and 7
NCharge is 0
 get_w_dc time:  CPU 0.11 s  wall 0.22 s
 AOints 129 time:  CPU 0.26 s  wall 0.54 s
 DFT time  CPU 0.16 s  wall 0.31 s
 Ei = -39.801792
 Ej = -39.705957
 Ej-Ei = 0.095835
---------------------------------------------------
SF-CIS derivative coupling without ETF
  Atom         X              Y              Z     
---------------------------------------------------
   1       0.058772      -0.019534      -0.057253
   2       0.004135       0.007541       0.016731
   3      -0.030916      -0.007368       0.037655
   4      -0.004994       0.004607      -0.003810
   5      -0.030779       0.017178       0.011443
---------------------------------------------------
---------------------------------------------------
CIS Force Matrix Element
  Atom         X              Y              Z     
---------------------------------------------------
   1       0.006133      -0.001976      -0.005891
   2       0.000130       0.000753       0.001686
   3      -0.002812      -0.000667       0.003487
   4      -0.000509       0.000347      -0.000291
   5      -0.002941       0.001544       0.001009
---------------------------------------------------
---------------------------------------------------
SF-CIS derivative coupling with ETF
  Atom         X              Y              Z     
---------------------------------------------------
   1       0.063996      -0.020615      -0.061466
   2       0.001356       0.007852       0.017588
   3      -0.029343      -0.006960       0.036382
   4      -0.005316       0.003616      -0.003037
   5      -0.030692       0.016107       0.010533
---------------------------------------------------
              between states 4 and 5
NCharge is 0
 get_w_dc time:  CPU 0.11 s  wall 0.22 s
 AOints 129 time:  CPU 0.26 s  wall 0.53 s
 DFT time  CPU 0.15 s  wall 0.31 s
 Ei = -39.799697
 Ej = -39.767812
 Ej-Ei = 0.031885
---------------------------------------------------
SF-CIS derivative coupling without ETF
  Atom         X              Y              Z     
---------------------------------------------------
   1      -0.380594       0.133019      -0.221604
   2       0.080017       0.115246       0.052594
   3       0.145422      -0.043575      -0.132436
   4       0.274253      -0.171200       0.228906
   5      -0.113829      -0.037156       0.077784
---------------------------------------------------
---------------------------------------------------
CIS Force Matrix Element
  Atom         X              Y              Z     
---------------------------------------------------
   1      -0.012470       0.003814      -0.007458
   2       0.002546       0.003680       0.001672
   3       0.004624      -0.001385      -0.004239
   4       0.009003      -0.004870       0.007597
   5      -0.003703      -0.001240       0.002428
---------------------------------------------------
---------------------------------------------------
SF-CIS derivative coupling with ETF
  Atom         X              Y              Z     
---------------------------------------------------
   1      -0.391087       0.119619      -0.233909
   2       0.079862       0.115429       0.052437
   3       0.145027      -0.043433      -0.132941
   4       0.282347      -0.152724       0.238277
   5      -0.116149      -0.038891       0.076137
---------------------------------------------------
              between states 4 and 6
NCharge is 0
 get_w_dc time:  CPU 0.11 s  wall 0.22 s
 AOints 129 time:  CPU 0.27 s  wall 0.54 s
 DFT time  CPU 0.16 s  wall 0.31 s
 Ei = -39.799697
 Ej = -39.718564
 Ej-Ei = 0.081133
---------------------------------------------------
SF-CIS derivative coupling without ETF
  Atom         X              Y              Z     
---------------------------------------------------
   1      -0.046231      -0.010984       0.001105
   2       0.030757       0.048614       0.010766
   3       0.066531      -0.018884      -0.101336
   4       0.052215      -0.024964       0.058239
   5      -0.090325      -0.012106       0.048171
---------------------------------------------------
---------------------------------------------------
CIS Force Matrix Element
  Atom         X              Y              Z     
---------------------------------------------------
   1      -0.005508      -0.001393      -0.001981
   2       0.002479       0.003966       0.000859
   3       0.005523      -0.001565      -0.008196
   4       0.004516      -0.000170       0.005255
   5      -0.007009      -0.000838       0.004062
---------------------------------------------------
---------------------------------------------------
SF-CIS derivative coupling with ETF
  Atom         X              Y              Z     
---------------------------------------------------
   1      -0.067894      -0.017175      -0.024420
   2       0.030551       0.048882       0.010592
   3       0.068074      -0.019290      -0.101015
   4       0.055661      -0.002092       0.064776
   5      -0.086392      -0.010325       0.050068
---------------------------------------------------
              between states 4 and 7
NCharge is 0
 get_w_dc time:  CPU 0.11 s  wall 0.22 s
 AOints 129 time:  CPU 0.26 s  wall 0.53 s
 DFT time  CPU 0.15 s  wall 0.31 s
 Ei = -39.799697
 Ej = -39.705957
 Ej-Ei = 0.093740
---------------------------------------------------
SF-CIS derivative coupling without ETF
  Atom         X              Y              Z     
---------------------------------------------------
   1      -0.037115       0.030740       0.045754
   2       0.002692       0.001090      -0.005547
   3       0.033443      -0.003281      -0.037020
   4       0.011295      -0.014532       0.006441
   5      -0.008775      -0.014438      -0.005399
---------------------------------------------------
---------------------------------------------------
CIS Force Matrix Element
  Atom         X              Y              Z     
---------------------------------------------------
   1      -0.004133       0.002305       0.003748
   2       0.000224       0.000112      -0.000512
   3       0.002992      -0.000241      -0.003498
   4       0.001203      -0.000989       0.000546
   5      -0.000287      -0.001187      -0.000284
---------------------------------------------------
---------------------------------------------------
SF-CIS derivative coupling with ETF
  Atom         X              Y              Z     
---------------------------------------------------
   1      -0.044086       0.024587       0.039980
   2       0.002392       0.001198      -0.005458
   3       0.031920      -0.002571      -0.037317
   4       0.012831      -0.010549       0.005824
   5      -0.003058      -0.012664      -0.003030
---------------------------------------------------
              between states 5 and 6
NCharge is 0
 get_w_dc time:  CPU 0.11 s  wall 0.22 s
 AOints 129 time:  CPU 0.26 s  wall 0.53 s
 DFT time  CPU 0.15 s  wall 0.30 s
 Ei = -39.767812
 Ej = -39.718564
 Ej-Ei = 0.049248
---------------------------------------------------
SF-CIS derivative coupling without ETF
  Atom         X              Y              Z     
---------------------------------------------------
   1       0.147836      -0.698612       0.194076
   2       0.039816       0.050589       0.022482
   3       0.302333       0.119828      -0.177749
   4      -0.338028       0.420402      -0.292333
   5      -0.186898       0.175081       0.216386
---------------------------------------------------
---------------------------------------------------
CIS Force Matrix Element
  Atom         X              Y              Z     
---------------------------------------------------
   1       0.008477      -0.037007       0.011080
   2       0.001955       0.002499       0.001101
   3       0.014288       0.005812      -0.008650
   4      -0.015736       0.020290      -0.013754
   5      -0.008983       0.008406       0.010223
---------------------------------------------------
---------------------------------------------------
SF-CIS derivative coupling with ETF
  Atom         X              Y              Z     
---------------------------------------------------
   1       0.172134      -0.751434       0.224974
   2       0.039690       0.050739       0.022349
   3       0.290115       0.118009      -0.175632
   4      -0.319532       0.411995      -0.279275
   5      -0.182406       0.170691       0.207583
---------------------------------------------------
              between states 5 and 7
NCharge is 0
 get_w_dc time:  CPU 0.11 s  wall 0.22 s
 AOints 129 time:  CPU 0.26 s  wall 0.54 s
 DFT time  CPU 0.15 s  wall 0.30 s
 Ei = -39.767812
 Ej = -39.705957
 Ej-Ei = 0.061855
---------------------------------------------------
SF-CIS derivative coupling without ETF
  Atom         X              Y              Z     
---------------------------------------------------
   1       0.581338      -0.174559      -0.413978
   2      -0.005656       0.008138       0.024986
   3      -0.286376      -0.115726       0.224018
   4      -0.056916       0.046284      -0.028835
   5      -0.308693       0.261152       0.243895
---------------------------------------------------
---------------------------------------------------
CIS Force Matrix Element
  Atom         X              Y              Z     
---------------------------------------------------
   1       0.039317      -0.011722      -0.027948
   2      -0.000389       0.000486       0.001532
   3      -0.016849      -0.006746       0.013532
   4      -0.003612       0.002681      -0.001342
   5      -0.018466       0.015301       0.014226
---------------------------------------------------
---------------------------------------------------
SF-CIS derivative coupling with ETF
  Atom         X              Y              Z     
---------------------------------------------------
   1       0.635623      -0.189510      -0.451826
   2      -0.006289       0.007862       0.024764
   3      -0.272392      -0.109067       0.218770
   4      -0.058400       0.043350      -0.021702
   5      -0.298542       0.247366       0.229994
---------------------------------------------------
              between states 6 and 7
NCharge is 0
 get_w_dc time:  CPU 0.11 s  wall 0.22 s
 AOints 129 time:  CPU 0.27 s  wall 0.54 s
 DFT time  CPU 0.15 s  wall 0.31 s
 Ei = -39.718564
 Ej = -39.705957
 Ej-Ei = 0.012607
---------------------------------------------------
SF-CIS derivative coupling without ETF
  Atom         X              Y              Z     
---------------------------------------------------
   1      -1.731103      -0.052704       1.332902
   2       0.062760       0.036179      -0.081080
   3       1.067637       0.618932      -1.077467
   4      -0.258263       0.147903       0.178832
   5       0.877018      -0.748925      -0.370654
---------------------------------------------------
---------------------------------------------------
CIS Force Matrix Element
  Atom         X              Y              Z     
---------------------------------------------------
   1      -0.021959      -0.000628       0.016895
   2       0.000792       0.000455      -0.001022
   3       0.013459       0.007698      -0.013515
   4      -0.003318       0.001839       0.002331
   5       0.011026      -0.009364      -0.004688
---------------------------------------------------
---------------------------------------------------
SF-CIS derivative coupling with ETF
  Atom         X              Y              Z     
---------------------------------------------------
   1      -1.741774      -0.049847       1.340091
   2       0.062850       0.036051      -0.081037
   3       1.067577       0.610652      -1.072036
   4      -0.263210       0.145888       0.184864
   5       0.874557      -0.742744      -0.371882
---------------------------------------------------
 Derivative coupling time:  CPU 11.23 s  wall 22.85 s
 Total job time:  37.25s(wall), 16.85s(cpu) 
 Tue Mar 22 16:35:15 2022

        *************************************************************
        *                                                           *
        *  Thank you very much for using Q-Chem.  Have a nice day.  *
        *                                                           *
        *************************************************************
